LAMMPS data file

2048 atoms
1 atom types

-20 20 xlo xhi
-20 20 ylo yhi
-80 80 zlo zhi

Masses

1 39.948

Atoms # atomic

1 1 -20.000008 3.165822 -18.203421
2 1 2.139068 -2.290564 -28.594199
3 1 -12.457715 -18.127479 -9.817913
4 1 4.023642 -9.070607 -17.420563
5 1 -2.348591 9.905623 -30.010714
6 1 -12.032125 -18.352843 18.937155
7 1 -4.367562 14.330236 -24.595740
8 1 -2.714206 4.104427 9.082002
9 1 -7.924147 20.001120 15.484288
10 1 5.642017 20.000196 23.899140
11 1 -11.315524 -9.598190 -15.853532
12 1 -1.549567 -4.367801 -3.250792
13 1 -7.683779 17.704112 -26.002217
14 1 8.196001 -19.009769 -28.546465
15 1 -9.039004 11.335567 19.903638
16 1 -16.878664 11.442064 -7.926940
17 1 15.372995 -16.864032 -6.671638
18 1 4.822194 9.809325 4.953699
19 1 -5.653118 8.505738 -5.119168
20 1 -19.606222 13.380172 -24.757084
21 1 4.708119 -15.647687 -25.413580
22 1 -7.129323 -7.621653 8.403642
23 1 5.051027 0.135768 -20.394503
24 1 6.536421 20.001309 -25.646167
25 1 13.564958 12.886509 -17.330289
26 1 -18.219677 11.098636 25.174866
27 1 7.047054 19.109431 -9.056723
28 1 7.063833 5.815846 17.507899
29 1 12.210933 8.159066 15.130975
30 1 -13.142941 0.558482 16.238389
31 1 -20.000132 8.103323 18.487444
32 1 -0.308279 -12.131861 18.112428
33 1 -15.141394 20.036632 -20.904594
34 1 -0.074318 -3.077389 16.071672
35 1 -12.573791 5.344935 -27.778511
36 1 -17.452847 2.964687 -4.156580
37 1 -8.339637 7.444391 -27.123008
38 1 4.085638 -16.828933 11.517378
39 1 2.054786 8.788688 -7.039536
40 1 -2.736104 4.720660 -5.929122
41 1 2.688322 -8.474360 -21.094123
42 1 -5.806297 -3.426857 -30.000235
43 1 4.649316 8.632532 -21.464366
44 1 -13.847367 16.038492 -14.007711
45 1 2.132766 11.375066 8.512870
46 1 -6.756146 20.010892 -28.171937
47 1 2.338717 -1.425210 -7.061423
48 1 -12.285572 11.336824 -24.466563
49 1 5.415002 -3.019772 22.388284
50 1 15.064918 -18.855933 28.858253
51 1 1.164376 -5.913891 -26.832476
52 1 -15.040261 8.818622 -9.834347
53 1 13.407977 -8.569170 -18.770463
54 1 -9.231839 -5.399173 -8.165691
55 1 0.774513 -16.911566 -26.204041
56 1 -3.213376 -7.361991 -4.286655
57 1 8.076243 20.000809 5.905225
58 1 -14.057181 14.490983 -30.003460
59 1 -12.239163 1.973607 -10.481947
60 1 -8.016504 5.803184 14.703985
61 1 -5.436169 7.111402 -23.944262
62 1 9.571978 -14.404191 -1.298699
63 1 -20.009310 -8.204759 -9.286756
64 1 16.109286 -12.365219 -15.582270
65 1 2.942225 -18.627202 -22.475820
66 1 18.058476 -0.913984 14.369295
67 1 -8.840929 -7.102236 21.025045
68 1 11.061441 -14.126063 3.522089
69 1 15.956178 -12.228097 21.529875
70 1 -10.479974 4.854950 -0.317519
71 1 13.701856 6.024361 -17.605859
72 1 15.900573 -0.724903 6.417676
73 1 15.923512 20.005603 -16.505228
74 1 -18.785142 -8.250164 -12.350476
75 1 13.293958 16.459690 25.325378
76 1 -2.063548 20.000117 -15.127165
77 1 20.002159 -1.344102 -6.760638
78 1 -10.923566 16.984303 -1.226454
79 1 -11.484418 0.109296 -23.180230
80 1 17.308259 1.695185 -1.242515
81 1 -1.155091 -7.118029 -22.258484
82 1 -17.481864 -2.801645 11.254061
83 1 4.839657 -3.064622 -21.989589
84 1 9.898289 2.127553 -14.052629
85 1 -3.692646 -14.718966 -28.298696
86 1 4.861390 -19.593844 -7.132753
87 1 8.950229 -4.737444 27.981703
88 1 14.134868 -0.051901 22.225568
89 1 6.095037 5.206076 14.330524
90 1 4.099102 17.759465 -3.623525
91 1 -0.648355 2.188942 11.534694
92 1 -8.814831 4.511599 -4.579205
93 1 20.004150 -14.103999 -26.417463
94 1 -18.167969 -13.036278 -14.129183
95 1 14.018672 -5.052391 -15.889448
96 1 12.421336 -7.998130 1.328412
97 1 -8.902038 -12.392710 17.371729
98 1 6.869081 -14.435699 -21.256120
99 1 0.850211 1.932132 -19.990272
100 1 -3.644863 -20.029700 -9.339637
101 1 -11.933885 17.350511 -5.397582
102 1 6.151908 -16.402802 -12.728515
103 1 20.043376 0.544647 6.865527
104 1 -0.499375 -7.918665 -17.406450
105 1 -2.229231 6.333429 -23.594286
106 1 1.112861 -14.902608 -8.576815
107 1 14.259690 19.991254 13.659051
108 1 -13.850159 -11.547810 5.274935
109 1 -11.829760 16.704874 21.921619
110 1 10.682266 -8.907396 -22.144273
111 1 0.073680 -0.906192 3.932243
112 1 -5.911754 11.904565 0.000078
113 1 17.056698 -8.960175 9.460267
114 1 -12.040700 -5.258650 -15.081370
115 1 -15.969495 10.191643 8.469027
116 1 -5.835602 3.814456 -23.705644
117 1 13.510880 -2.693356 -29.740177
118 1 -1.353295 3.706079 27.190035
119 1 -15.641994 3.723801 15.459296
120 1 -11.958355 -16.256947 22.077189
121 1 -0.382369 -15.295834 9.524375
122 1 16.263913 14.882311 25.193304
123 1 -1.971551 -11.118826 28.637403
124 1 10.778852 -20.000654 -13.651420
125 1 -6.317741 -7.901441 -0.156546
126 1 4.627371 -2.777437 -18.109862
127 1 -3.676287 -12.027887 -13.228072
128 1 -8.265877 3.407880 12.165690
129 1 15.892997 -17.373493 9.679750
130 1 8.244765 20.001585 1.375628
131 1 -14.586757 -17.485641 -23.900570
132 1 5.833711 14.744138 0.612237
133 1 12.140285 2.648548 22.718413
134 1 1.731259 -8.801233 9.856281
135 1 1.819451 -4.137204 11.026546
136 1 2.186797 12.241263 -27.607206
137 1 18.393699 18.492004 -14.925037
138 1 -12.578340 12.676334 -27.471735
139 1 4.293553 -9.856291 -28.149425
140 1 -18.305366 19.347650 -11.947430
141 1 -0.263700 -3.101783 -25.861577
142 1 17.584382 4.592653 3.949146
143 1 -5.597853 1.156497 -8.523848
144 1 -14.487438 2.187942 -24.020540
145 1 -6.835705 -3.096816 -7.026907
146 1 13.475030 -15.431305 -26.641774
147 1 -4.321119 -11.724221 4.719418
148 1 2.731467 -14.962411 -22.500710
149 1 10.106367 19.224559 -10.761134
150 1 0.989410 -14.676926 -18.056377
151 1 4.285635 -13.530062 11.036265
152 1 0.948484 -17.357054 -20.170560
153 1 -16.682080 12.213218 15.130417
154 1 -7.442838 -4.998983 14.990116
155 1 14.327418 -20.013886 3.834159
156 1 -5.834259 -17.501380 -23.893461
157 1 7.478794 13.488436 -20.720578
158 1 10.844917 -6.639075 13.028524
159 1 12.430872 6.731412 12.157902
160 1 5.457688 -18.780535 17.512769
161 1 -18.823033 16.760605 14.329035
162 1 -20.003456 -3.396012 21.151580
163 1 9.670902 -6.387168 -16.828113
164 1 19.495784 -15.982795 13.918574
165 1 -9.684858 -14.677813 2.989389
166 1 -3.630644 -16.984504 10.969706
167 1 8.563806 -6.415969 10.605345
168 1 17.282155 18.145077 -9.673443
169 1 10.931993 -6.669086 -1.306207
170 1 -2.808444 9.541016 -24.652443
171 1 -8.962819 -1.947585 6.016483
172 1 -3.587924 11.290632 28.080755
173 1 3.644992 -9.774997 20.825917
174 1 -11.777669 2.953165 -4.264487
175 1 12.186326 11.100549 30.000454
176 1 -1.534792 -2.542105 9.538470
177 1 -3.716784 17.715029 19.808921
178 1 -2.087613 -10.008452 -7.246702
179 1 -16.905296 10.043094 -12.424198
180 1 -1.961026 -4.073923 -19.671898
181 1 4.159739 -19.263482 1.435413
182 1 -13.256556 18.828743 -9.977243
183 1 -2.282637 2.214686 19.144975
184 1 5.885311 -0.983956 16.826913
185 1 17.354583 11.823333 29.222783
186 1 14.586461 -0.643933 -0.723256
187 1 12.376283 5.426992 -23.188352
188 1 -0.913219 2.949113 16.133488
189 1 9.596299 -19.001873 13.812269
190 1 12.229917 11.488206 14.934092
191 1 13.839809 17.759389 -22.861931
192 1 -14.575814 0.157015 24.410286
193 1 -14.095800 -2.691533 -13.619552
194 1 -0.765099 -20.001426 2.415322
195 1 -13.710938 12.187138 2.142712
196 1 14.018386 3.505421 4.219824
197 1 -12.770248 13.478658 -15.799517
198 1 -9.368273 12.293518 -23.223396
199 1 -20.082497 -11.909658 -2.063883
200 1 11.041694 -8.912046 19.726606
201 1 -16.109348 -5.687628 13.673013
202 1 1.666175 -15.311578 -3.694775
203 1 -1.082933 9.008334 15.517682
204 1 18.731089 -9.430880 2.344123
205 1 -17.879501 2.715094 12.746082
206 1 -6.636322 14.373200 -6.478375
207 1 7.682863 -0.654309 8.394915
208 1 -2.990793 -8.414218 20.530317
209 1 -15.894029 -16.714379 -29.513057
210 1 2.465879 -9.805633 14.489427
211 1 1.180699 -10.044098 -29.343688
212 1 2.300115 7.580860 25.286979
213 1 -0.254256 -2.529927 29.432939
214 1 12.953292 17.858138 11.464673
215 1 -11.101286 -13.575945 25.531091
216 1 15.954998 -3.585491 -12.056208
217 1 -4.934654 -3.813035 -24.404171
218 1 -16.676091 -14.230143 -6.754401
219 1 -7.519175 -3.565420 -22.275462
220 1 2.179628 -0.389837 11.546454
221 1 17.938940 -7.825349 -18.693329
222 1 -4.822794 11.697915 -5.514224
223 1 6.244035 13.177855 -17.257015
224 1 8.040943 15.546779 -30.001198
225 1 -0.340858 -14.485164 4.632315
226 1 4.909496 -3.476377 -29.885424
227 1 8.471741 -15.471268 -4.221233
228 1 11.460963 -0.396998 -8.593785
229 1 4.223390 -11.489399 -20.535243
230 1 9.659631 14.044792 11.234245
231 1 -1.927780 -19.893795 12.197019
232 1 -9.690290 3.143911 -27.708227
233 1 1.939095 -5.673188 -3.477008
234 1 -9.228084 -6.527364 -0.892060
235 1 -6.007066 -1.708548 7.555869
236 1 0.049627 -7.910708 -5.061926
237 1 8.947005 17.292089 -1.034706
238 1 9.814223 -9.652413 -18.303034
239 1 -20.035186 18.912234 -22.798643
240 1 -8.064771 10.873976 6.876165
241 1 -6.003419 -16.427908 24.617699
242 1 -3.207009 7.137870 -18.064766
243 1 19.995007 8.249366 -1.907122
244 1 5.155198 -2.550115 10.954220
245 1 10.186587 6.243001 -15.373945
246 1 -2.502594 5.746923 17.071259
247 1 20.002024 11.522804 -11.961627
248 1 -8.619934 12.200535 27.857381
249 1 16.698856 -7.986252 25.027772
250 1 -11.589048 -12.500081 -7.922812
251 1 -5.075270 -5.278204 19.151006
252 1 17.311610 -12.312312 5.862534
253 1 12.253527 -3.296115 -13.723863
254 1 -17.810731 -20.068341 -9.012843
255 1 8.220999 5.326528 -12.886654
256 1 14.197259 2.378116 -2.114600
257 1 -15.178219 1.723816 -28.289164
258 1 -15.434325 18.134484 -16.098431
259 1 10.295224 -16.288276 20.913860
260 1 6.740454 11.313474 16.215931
261 1 -17.983121 -11.978625 0.474262
262 1 -16.599373 -17.044959 -8.471976
263 1 -19.016112 -14.516122 26.683501
264 1 11.525319 20.002225 -16.920339
265 1 -3.096766 11.524998 -2.697607
266 1 6.576431 13.412610 9.567292
267 1 5.707899 -1.077272 -6.413763
268 1 -3.164418 -8.758407 -19.421501
269 1 -2.369627 7.453764 10.201968
270 1 -19.961189 -16.291073 8.862400
271 1 16.587053 19.560299 -28.588391
272 1 16.209893 0.071365 -21.493236
273 1 -19.266404 -16.456079 -12.505343
274 1 -0.098186 4.638243 -17.327495
275 1 -18.056907 3.503361 -10.621559
276 1 -0.227792 -0.858653 -4.949637
277 1 14.984381 -18.918964 -25.961477
278 1 4.408701 -0.443712 -14.810518
279 1 5.070029 20.000114 -29.001105
280 1 -1.024678 11.420475 19.788273
281 1 -14.793374 10.586005 23.873250
282 1 20.000478 -12.303522 15.990786
283 1 -7.143740 3.181086 4.332073
284 1 -9.493488 13.066336 -16.495271
285 1 11.216560 -5.258764 -19.528079
286 1 -10.901576 7.901218 -5.238680
287 1 -2.447204 -17.254938 -25.422718
288 1 -15.605566 15.070308 -11.149506
289 1 9.594735 -19.719596 -21.667637
290 1 -5.861477 10.853915 13.649267
291 1 5.480550 10.858091 22.308817
292 1 -10.593044 -15.062544 -3.369639
293 1 2.592613 0.421469 27.567925
294 1 -15.363841 -2.438349 8.749876
295 1 -17.754337 -8.983640 -29.791734
296 1 -3.977862 11.998283 2.901975
297 1 11.355645 20.008090 -25.614427
298 1 17.537941 -2.089278 -24.300875
299 1 -9.250834 14.120640 21.740604
300 1 5.172241 9.915505 -7.315612
301 1 -19.484316 6.756825 11.976383
302 1 -7.034896 -7.397425 26.353623
303 1 -9.314566 1.916783 7.697118
304 1 5.721654 5.146500 2.507624
305 1 16.227688 -16.204856 23.045232
306 1 1.650353 9.551524 20.308877
307 1 -5.642493 16.952637 -29.819449
308 1 11.144522 -4.319193 21.435613
309 1 -6.141963 13.603658 7.692155
310 1 9.618147 -11.014235 24.631636
311 1 8.400992 2.536897 -4.578390
312 1 19.514222 5.644865 0.710114
313 1 -18.177745 4.932753 9.249833
314 1 -20.055009 8.146525 15.128374
315 1 -8.463408 -20.019224 20.936172
316 1 -4.065197 14.785622 16.920610
317 1 -16.413575 5.634555 -17.289355
318 1 -1.084511 10.977145 -27.157078
319 1 19.420567 -16.531768 -18.584507
320 1 15.443014 0.416769 -5.269920
321 1 -7.873098 19.628187 7.355206
322 1 -16.512275 7.943640 22.726877
323 1 -9.981098 1.718811 -1.664985
324 1 19.479459 3.978914 21.270572
325 1 -17.513846 16.255701 29.691769
326 1 4.476845 13.969571 -25.372290
327 1 -9.647309 -1.425252 -28.924549
328 1 -0.094700 -9.968706 -20.129533
329 1 1.952813 -2.381542 -15.973054
330 1 -8.704119 -8.417313 -19.948772
331 1 6.718959 -19.367366 12.109827
332 1 -19.946726 12.453356 -8.903859
333 1 -14.233931 -5.757618 0.589487
334 1 -16.628989 6.099011 -8.035288
335 1 -16.003635 -8.472428 20.213270
336 1 13.617269 -10.222645 -22.883107
337 1 -2.648494 5.898337 -27.853270
338 1 -19.460175 18.440129 -0.485600
339 1 13.835844 9.075087 -10.465312
340 1 -2.209815 19.995834 -11.828615
341 1 6.489515 11.965985 -12.830167
342 1 -6.464308 -12.017824 -10.088621
343 1 18.903971 13.191799 -23.515931
344 1 4.133122 -18.845728 27.053816
345 1 -17.999413 16.405192 5.408300
346 1 13.736535 7.199286 -1.976174
347 1 -16.103856 7.044447 10.725800
348 1 -12.771885 2.361123 21.864100
349 1 19.561824 15.165890 10.800248
350 1 17.019380 11.768505 -16.630798
351 1 -9.816183 17.039398 15.959865
352 1 14.255393 14.229374 -13.762121
353 1 5.179618 -20.002644 -18.189108
354 1 -1.093394 -10.503176 9.728979
355 1 -0.787970 13.214397 25.041149
356 1 10.341679 11.497439 -24.649244
357 1 2.677307 -12.023955 -7.128577
358 1 7.202037 12.606717 -23.891727
359 1 -3.553828 -1.349388 -10.023243
360 1 -8.134023 5.163567 6.777347
361 1 4.026515 13.785541 3.549355
362 1 -4.653957 -3.151750 15.711771
363 1 3.840334 10.886906 18.118521
364 1 -6.730789 16.630627 20.752512
365 1 17.421294 -16.664197 -2.069344
366 1 17.573794 -13.058305 -5.964195
367 1 15.695253 16.970145 -12.320753
368 1 8.498794 8.958628 -18.533884
369 1 -14.246511 -8.406102 2.557764
370 1 -4.389605 1.199224 -1.221026
371 1 4.335537 5.691477 22.891159
372 1 -0.975251 0.639972 23.017205
373 1 -17.567484 -0.783932 14.987366
374 1 13.235655 -1.955982 -17.162269
375 1 -8.960797 9.433000 12.908103
376 1 9.465552 -1.968802 -0.301590
377 1 -7.977570 -18.463467 -5.150076
378 1 3.009996 -14.225319 -15.018091
379 1 -11.026808 16.921323 29.977105
380 1 11.870702 -17.982544 -29.666052
381 1 7.081612 13.975901 -4.174849
382 1 15.747009 9.865122 -13.817196
383 1 -17.836981 13.956403 1.040029
384 1 -17.912817 3.662538 -30.000095
385 1 -15.136347 -13.197023 11.281505
386 1 9.852283 -12.227128 13.762174
387 1 9.359658 9.717468 -4.948233
388 1 -1.660998 3.242014 -14.742939
389 1 -1.779861 17.218702 7.152001
390 1 7.017679 -15.992145 9.735666
391 1 2.703771 -14.925112 28.167929
392 1 -0.831166 -1.109503 12.710644
393 1 2.477371 14.302203 27.639041
394 1 -7.569272 -9.939101 -2.432403
395 1 -12.481035 13.000676 27.721548
396 1 17.924753 5.444719 24.661451
397 1 -14.465361 -11.837950 27.010399
398 1 -5.143504 18.592746 23.154170
399 1 -1.101738 16.391624 -7.954250
400 1 -2.521846 5.930855 25.046777
401 1 -7.649080 7.563551 -18.807514
402 1 -13.287568 -12.717553 17.074993
403 1 14.779494 3.051926 25.026288
404 1 -7.743818 -10.856079 7.327120
405 1 -1.670889 -3.576174 2.965232
406 1 11.223340 13.861455 23.993087
407 1 -12.338231 15.778814 10.118424
408 1 -12.891825 0.385310 -13.304154
409 1 -13.168399 -1.094656 -26.436089
410 1 7.218869 -3.952168 1.237806
411 1 4.406694 13.884447 -14.605704
412 1 -0.020082 -4.445316 -12.327697
413 1 -12.980494 6.245380 -2.909185
414 1 -3.418540 -3.446050 12.665906
415 1 2.127422 -8.038085 27.800265
416 1 13.912838 5.257856 -9.849456
417 1 -11.698393 2.216500 1.655299
418 1 -4.636128 10.374966 6.888262
419 1 -9.653616 -16.518298 -23.277346
420 1 11.289266 -16.216164 -7.820390
421 1 2.805370 -5.860467 -23.175009
422 1 -11.626824 -12.818366 9.162268
423 1 -6.633485 18.832015 -9.977066
424 1 16.956197 20.000902 3.358155
425 1 -11.318083 -17.822720 -27.789924
426 1 16.269397 12.571391 0.499457
427 1 13.140710 20.000065 7.537546
428 1 -1.058241 8.937955 0.571425
429 1 -11.917192 -4.018294 20.950845
430 1 7.882339 11.359540 0.773714
431 1 1.341823 14.988959 -9.738637
432 1 2.619443 10.443722 -18.888271
433 1 17.508602 -4.941450 15.284916
434 1 -1.413692 -14.193832 -15.132230
435 1 9.248415 9.654320 -12.645340
436 1 14.098906 16.826897 5.407100
437 1 11.941192 -10.798165 -7.423252
438 1 15.717802 -15.541881 5.754177
439 1 -12.742363 -2.708760 6.764112
440 1 -1.750191 -0.735889 -16.048026
441 1 4.053351 11.045985 -23.850761
442 1 -9.555279 -12.414580 -14.816689
443 1 8.752277 11.804686 13.482852
444 1 13.550737 -2.972220 5.819584
445 1 -19.316474 -10.532376 18.360410
446 1 -16.434436 11.623062 -26.114278
447 1 9.169424 -12.044954 -3.615414
448 1 -5.812831 18.178179 10.519444
449 1 -0.194122 5.311550 29.960079
450 1 12.484221 -3.554420 -1.056983
451 1 -2.536781 -12.559717 -18.959222
452 1 10.001064 -5.996191 -6.488421
453 1 -5.787553 -13.821903 12.851744
454 1 14.266994 2.677610 -18.936029
455 1 18.501192 -0.478470 1.047601
456 1 4.481884 16.872184 6.377579
457 1 -2.933918 -4.740024 -10.345086
458 1 -10.663758 10.923222 4.470717
459 1 -8.697790 20.000100 -1.444565
460 1 -2.849217 5.009168 -9.978526
461 1 -4.597981 20.005748 26.086021
462 1 6.616910 -9.242843 -20.197532
463 1 1.163376 -18.696320 9.842350
464 1 7.589736 0.432831 -16.051880
465 1 -2.571051 17.841644 11.036862
466 1 7.659251 -6.390610 23.689450
467 1 5.909791 0.217159 5.397087
468 1 6.192948 -16.936406 29.670475
469 1 12.166059 -15.341919 -16.621550
470 1 2.576987 -2.164990 19.246666
471 1 1.381661 -11.554142 3.801084
472 1 18.989262 17.926262 6.401240
473 1 -16.741724 -11.493061 -2.947999
474 1 20.000807 -0.348556 24.600077
475 1 16.948245 -15.478787 -23.345591
476 1 6.614906 14.429584 14.418968
477 1 -1.413862 19.959875 5.337095
478 1 -3.916167 17.116195 -12.198922
479 1 -4.516455 -2.228217 -17.124081
480 1 5.587578 18.781116 -22.240966
481 1 -13.581576 10.094380 -14.386851
482 1 4.632244 -2.350925 -9.365597
483 1 12.701609 -17.974014 19.004034
484 1 6.650577 -1.168173 13.608421
485 1 16.991694 15.638148 28.653481
486 1 -14.883148 -9.761491 23.261975
487 1 12.438898 -12.986097 -4.687709
488 1 -3.079064 16.450949 -26.792807
489 1 -3.665720 -9.123913 11.478587
490 1 2.759595 -12.766868 24.304615
491 1 5.105413 -12.750988 -0.485724
492 1 13.117072 -14.691229 -30.000054
493 1 -2.194079 17.932987 25.183604
494 1 3.531068 14.843845 -1.796235
495 1 2.962136 -1.885496 15.572332
496 1 10.330580 -15.215791 26.398533
497 1 -3.857107 -18.261325 7.935189
498 1 -18.344544 -6.671412 26.710729
499 1 -12.960683 -10.560149 -27.406541
500 1 16.676292 -5.271070 -7.816962
501 1 11.839970 10.947640 26.123290
502 1 -15.169224 -16.729257 -11.425309
503 1 -18.293783 -0.647178 21.792515
504 1 -1.494515 -6.607587 -14.340759
505 1 -2.725085 -12.407348 20.754043
506 1 6.487431 -15.713065 -16.686539
507 1 4.430772 -18.706535 8.756349
508 1 5.667755 -5.524667 -9.106093
509 1 1.249582 -6.476392 -0.135508
510 1 14.494579 11.224340 -26.494466
511 1 -17.451374 -2.728660 -11.440342
512 1 -18.523566 5.233559 14.907771
513 1 11.579589 -6.703628 7.640274
514 1 10.677182 -1.051063 30.002320
515 1 9.301640 -18.211401 -17.564609
516 1 -8.923131 20.019009 -13.836369
517 1 8.931531 -15.803042 6.848617
518 1 -7.028944 6.539945 -30.012966
519 1 1.590698 15.853864 20.669574
520 1 -2.532378 0.991821 8.000973
521 1 -7.050733 1.660879 -29.037282
522 1 -17.412891 -5.710602 -10.027472
523 1 -8.782052 -11.582468 23.258587
524 1 -19.108393 -7.481608 20.752051
525 1 -12.912646 12.503505 -19.711697
526 1 -10.919419 -0.136056 -15.997039
527 1 5.189399 12.780226 -29.282980
528 1 4.049130 -14.086761 -9.844582
529 1 6.467274 -16.322974 -29.381593
530 1 1.649783 -19.118467 6.587284
531 1 -12.197988 8.608440 -0.699560
532 1 -19.848697 19.983518 22.685638
533 1 8.925182 12.224140 27.162798
534 1 -10.971672 3.383345 10.153467
535 1 -16.069792 5.242928 -2.210615
536 1 11.926352 0.405458 -29.938772
537 1 1.642681 -7.205572 -13.138142
538 1 -18.945872 -12.875100 20.801961
539 1 1.421464 -11.596676 11.865129
540 1 -4.923232 -5.953642 3.281063
541 1 -14.807371 10.203403 17.716074
542 1 -3.192134 0.319321 3.991641
543 1 20.017581 -4.821909 -20.175462
544 1 -16.165444 -15.827107 -20.599286
545 1 19.817639 8.125723 4.612160
546 1 14.689860 -19.121543 -21.833341
547 1 -1.302259 8.924929 -21.617643
548 1 20.002261 10.067602 -7.459558
549 1 14.091586 -10.856668 -2.529556
550 1 7.422521 -4.446039 -18.672580
551 1 15.498941 19.313693 0.478201
552 1 -14.366429 -19.053827 -27.504058
553 1 13.668179 -0.496037 3.529637
554 1 -1.013102 -4.035961 -16.399391
555 1 -3.758765 -17.507677 -7.214824
556 1 -1.518745 -0.223596 16.982674
557 1 0.154638 8.088956 -18.776603
558 1 8.607155 -7.799362 -9.660898
559 1 -17.989569 9.291778 -16.843473
560 1 -18.892264 11.626753 -2.367339
561 1 -18.875498 1.108619 -24.673742
562 1 0.619344 9.875452 -10.006424
563 1 16.924648 6.295219 8.905365
564 1 -7.210671 -10.094260 -29.608403
565 1 -4.138332 13.561452 25.750226
566 1 13.591523 4.506402 28.005326
567 1 -7.144860 4.638162 24.191854
568 1 -16.002707 -17.028103 13.163288
569 1 -2.505752 -18.200195 -19.004626
570 1 -12.636849 -11.277166 -23.699370
571 1 -13.055321 6.099686 -17.504540
572 1 8.050456 -5.113379 -1.736020
573 1 6.625629 4.820248 7.969737
574 1 1.080813 -14.822274 12.553195
575 1 -5.679485 0.716284 -24.830615
576 1 -1.152844 -18.651522 -11.006776
577 1 -5.551943 13.923047 11.353363
578 1 -0.128674 6.081577 -0.928736
579 1 -1.079830 -4.963922 25.050459
580 1 -14.139858 9.593244 -30.022315
581 1 17.094876 10.467540 21.699630
582 1 17.782580 -8.942837 29.129404
583 1 -6.579835 -0.488450 4.135043
584 1 -3.800168 -5.426900 -1.082125
585 1 8.140409 2.601877 19.129593
586 1 17.346582 -8.682455 -28.782703
587 1 -10.665640 -16.281040 14.659094
588 1 9.256038 5.451436 3.836717
589 1 5.719727 -11.368665 15.210398
590 1 -8.732314 -17.715766 23.281868
591 1 -16.325369 -6.956951 29.444616
592 1 10.302595 -10.319932 -13.582263
593 1 10.584728 7.046693 -10.725068
594 1 -4.513821 -10.765922 23.004816
595 1 -8.688900 -2.577125 9.274595
596 1 -0.799605 -15.462271 -0.574488
597 1 13.017314 -6.029490 4.555012
598 1 2.747092 1.494299 -5.574876
599 1 8.369107 -9.864036 10.325397
600 1 -6.557447 19.553821 18.548063
601 1 -10.749441 19.165438 10.335991
602 1 -17.746909 0.319697 -8.907700
603 1 7.664330 -8.455129 -6.567183
604 1 -4.032215 -10.805439 -16.584505
605 1 -18.896491 -6.099237 7.504720
606 1 11.548921 3.754014 -20.466828
607 1 17.580532 -19.833367 12.209562
608 1 -4.511215 20.010950 8.103637
609 1 19.717202 -10.599214 27.026802
610 1 -0.151942 -6.208806 7.858536
611 1 -7.519749 -11.519624 14.466559
612 1 5.229029 -9.330147 9.434950
613 1 16.513701 -3.577842 0.337738
614 1 -2.049446 -3.065688 -28.884233
615 1 -4.544308 3.939930 11.824303
616 1 -10.450632 6.350622 -20.655765
617 1 -16.188002 1.883478 22.021073
618 1 2.052561 0.716751 -26.986341
619 1 -13.266600 11.517915 -4.718991
620 1 -0.008329 -10.240258 6.496624
621 1 -5.500049 -4.177054 9.689173
622 1 -10.681771 -3.753437 25.369556
623 1 9.275791 4.244279 -7.412692
624 1 6.354919 19.327864 -1.404680
625 1 -4.876359 5.764092 -20.563115
626 1 -3.322900 -3.830924 -13.496935
627 1 15.641157 15.007313 -24.871592
628 1 19.605472 5.062645 -19.421334
629 1 7.138585 -9.048797 25.583938
630 1 7.292782 -5.902616 13.749211
631 1 -6.391778 -2.363286 -14.003053
632 1 17.214970 6.707025 -13.964082
633 1 -19.088502 -17.211902 -28.342523
634 1 12.092670 -17.068752 -22.758987
635 1 7.964635 -8.988612 2.496793
636 1 13.213548 17.209006 15.097160
637 1 17.279949 12.760020 -13.357859
638 1 -13.718761 -10.131095 -7.055919
639 1 -7.391969 16.764243 -0.662843
640 1 -17.873742 7.231707 26.274704
641 1 4.226084 13.024874 -20.273414
642 1 13.292354 4.219057 20.052057
643 1 -11.118878 16.950622 -12.310933
644 1 -11.713523 -0.749967 26.830370
645 1 -0.162218 -6.498172 3.239594
646 1 -13.107457 17.140402 25.974217
647 1 -14.534720 -10.548306 8.990807
648 1 11.641187 16.880232 18.311973
649 1 -8.690653 6.087718 -23.584419
650 1 7.299667 10.508823 7.369405
651 1 -8.491095 -15.521027 -6.608212
652 1 -10.071409 10.599832 -2.388454
653 1 -4.771956 -1.220684 1.405700
654 1 -11.201607 -14.230273 19.138623
655 1 17.548194 2.218170 23.296093
656 1 -5.193732 19.914744 -13.755027
657 1 15.310764 18.738976 -19.660561
658 1 4.229572 2.889635 11.001019
659 1 -1.614660 -16.038952 -21.820190
660 1 2.895246 0.129534 -17.895875
661 1 -11.842886 -19.713754 -22.606003
662 1 3.586235 3.038468 17.175114
663 1 -3.081208 15.029265 9.388237
664 1 13.122814 -6.200526 10.594088
665 1 -7.601446 14.029217 -25.404146
666 1 -10.627907 16.346867 -19.658885
667 1 -12.209659 -7.552868 7.674575
668 1 -14.583611 -1.478389 18.414601
669 1 19.064253 -19.408540 -21.911835
670 1 16.918076 -1.639899 -2.835442
671 1 -19.608233 2.407771 1.018160
672 1 -3.608199 -10.914800 17.495038
673 1 -5.780792 -18.430672 -11.834790
674 1 7.618444 -0.950299 2.826499
675 1 19.354351 8.319269 -10.462876
676 1 8.868754 0.681225 -22.364180
677 1 -13.539279 -16.836390 -18.706068
678 1 4.965208 17.595553 20.319975
679 1 16.704926 -1.297637 20.231177
680 1 1.217372 6.703688 21.922428
681 1 12.804782 8.725170 -20.202444
682 1 -15.549821 -19.668421 -14.943025
683 1 12.416338 8.320153 9.264489
684 1 14.797289 7.988901 1.050143
685 1 12.952613 3.812468 -7.019086
686 1 -14.314634 -7.267751 17.618846
687 1 15.434822 -6.560058 1.779999
688 1 6.475112 -2.994001 5.905573
689 1 -8.832176 -19.278083 -8.854547
690 1 -1.053735 0.760163 -1.956964
691 1 17.656014 -4.625901 19.243971
692 1 -15.915649 18.742233 26.780163
693 1 11.332744 -3.676490 -27.407838
694 1 -7.528251 13.919903 -9.801942
695 1 -2.439820 10.286251 -18.835061
696 1 19.694156 16.766639 21.253650
697 1 16.208039 19.465312 10.993724
698 1 -13.096713 -13.416962 -13.390282
699 1 8.525822 -3.101610 10.508391
700 1 -19.040634 15.221947 -6.014116
701 1 -10.345727 13.718474 -11.562712
702 1 -19.730807 -6.806895 -26.990642
703 1 6.765007 -18.687982 3.439258
704 1 -14.853182 -10.599235 -12.354650
705 1 -1.225424 -5.854291 21.665290
706 1 -3.922929 18.588859 -23.928759
707 1 -7.937819 10.877282 -26.367784
708 1 17.047832 -4.773454 -26.158691
709 1 7.290418 15.855553 -6.887892
710 1 11.565154 -6.949049 16.552983
711 1 -15.664435 -2.897473 -17.450507
712 1 17.682392 14.210981 22.290341
713 1 0.873226 -19.905351 -0.643428
714 1 -0.439834 4.503093 2.602275
715 1 10.027121 -1.770876 26.486344
716 1 -10.281531 -6.940169 27.308683
717 1 -20.000121 14.857761 17.184330
718 1 -5.102256 3.850250 18.548596
719 1 0.729498 16.540879 -16.279343
720 1 2.574179 19.825408 -6.365143
721 1 -15.651125 -7.008239 -16.414658
722 1 -11.355587 6.954089 7.590846
723 1 18.699538 19.755259 -2.198124
724 1 16.669017 1.649110 -8.117681
725 1 2.215145 -10.025484 17.800509
726 1 19.653614 1.549519 11.634041
727 1 14.644107 -14.585287 28.923855
728 1 -7.748809 -0.256862 19.622652
729 1 9.132088 13.151550 -14.757127
730 1 -3.861810 10.471538 10.520037
731 1 3.656028 -12.687217 -3.484564
732 1 18.455898 -13.801476 20.052606
733 1 10.816999 -13.231585 -23.854034
734 1 8.612010 20.021850 -22.684956
735 1 4.789651 0.342533 30.028551
736 1 -6.741016 -7.356511 17.190004
737 1 10.370353 17.242276 -13.756016
738 1 8.699856 15.626658 27.423933
739 1 -3.652236 -2.232362 27.661714
740 1 5.070712 -7.194018 -26.219049
741 1 -4.507694 -8.144927 -25.252081
742 1 -16.756049 -14.385892 3.078576
743 1 13.930434 -5.481136 -5.346854
744 1 16.150210 -16.650055 -16.947772
745 1 -9.665881 0.723853 3.963782
746 1 9.473268 15.573854 -19.091832
747 1 11.231762 -11.589352 10.668540
748 1 -0.444680 -15.453761 -11.433377
749 1 12.950942 0.834137 6.706033
750 1 -10.201856 4.461323 29.460185
751 1 1.989684 -1.637466 -1.406926
752 1 -10.833587 -13.042688 13.132726
753 1 -6.454033 -10.630621 25.671139
754 1 7.033482 -16.529076 -1.309908
755 1 17.492532 -11.783025 -20.715278
756 1 20.006061 -3.328000 1.758441
757 1 -10.343484 5.412107 18.357201
758 1 -9.396479 2.491895 23.088831
759 1 10.986133 14.185206 7.295035
760 1 13.327730 18.960477 -14.359867
761 1 1.865958 0.044103 -10.011826
762 1 -7.978172 6.889774 -7.401360
763 1 -9.762539 7.702512 1.377244
764 1 12.091249 1.345810 13.673476
765 1 -12.005483 -8.031263 -23.721321
766 1 -15.188323 7.209642 -14.237537
767 1 -8.472320 6.760112 -2.141896
768 1 2.167734 3.092735 22.269240
769 1 -9.870554 -11.856505 -10.979861
770 1 -4.781565 -2.645258 -20.623257
771 1 -7.718482 -0.237715 -22.000072
772 1 11.580751 0.591597 19.876264
773 1 8.819324 15.044249 21.625949
774 1 4.022334 8.412838 -26.504781
775 1 -20.003166 -17.417606 23.643556
776 1 2.126803 10.592423 23.948905
777 1 -12.506379 -1.510995 -18.729005
778 1 18.084280 -3.728239 -5.108902
779 1 -9.645819 -3.091768 -18.271554
780 1 -13.219200 14.349029 -6.523548
781 1 13.095512 14.063725 12.034937
782 1 2.950476 -13.316921 15.542258
783 1 6.832375 -18.194542 20.465480
784 1 -13.702695 4.604123 19.427753
785 1 10.077768 12.291105 -18.402866
786 1 -13.659221 12.390412 -11.265652
787 1 -3.748148 -19.231767 0.893833
788 1 -5.124223 2.057468 1.879580
789 1 13.728952 14.832195 29.915071
790 1 16.326024 5.428217 -19.515916
791 1 7.806005 4.544547 -16.929733
792 1 -14.184577 19.812144 -6.577183
793 1 7.937890 -14.385091 2.489455
794 1 13.322111 -19.744536 7.222326
795 1 -3.393077 1.878819 -4.292720
796 1 -17.454245 19.807608 -26.242805
797 1 11.890394 -8.359939 22.998398
798 1 7.110786 7.700320 -24.449265
799 1 -15.799657 13.198429 -17.102334
800 1 13.772904 15.019439 -4.474288
801 1 -3.620314 -15.299457 -9.679162
802 1 11.109795 -2.422825 2.539051
803 1 -14.764800 19.571075 15.463982
804 1 2.024286 -19.610445 23.893219
805 1 -10.384646 13.004059 25.140689
806 1 3.509073 6.106780 -11.820426
807 1 9.412335 -0.763961 -6.017465
808 1 1.655796 14.220821 -18.565494
809 1 15.967312 6.575328 29.820240
810 1 5.630512 -3.772279 18.613852
811 1 14.163553 -11.696545 -19.709738
812 1 4.625788 -7.165877 22.598891
813 1 13.496312 -9.183893 -30.000651
814 1 14.778606 -2.084303 -26.354789
815 1 -14.987638 0.762406 10.358118
816 1 -15.392786 -16.087802 -14.851418
817 1 -18.923142 -13.982012 -4.350029
818 1 -7.807604 -15.462000 7.494250
819 1 14.949108 -18.167659 -3.664608
820 1 -18.108292 10.873324 5.547759
821 1 10.423642 -3.121897 -10.923338
822 1 -4.548932 -12.843648 -7.509168
823 1 -15.022490 10.107573 -18.046845
824 1 -3.768987 -6.881302 8.927288
825 1 14.982732 -3.798985 8.840782
826 1 0.651804 16.569516 -22.593764
827 1 7.272905 -3.978342 -6.613311
828 1 3.261232 18.319786 25.447714